# vsim -c december_top_file_tb -do "run -all; quit" 
# Start time: 02:22:25 on Dec 16,2024
# ** Note: (vsim-3813) Design is being optimized due to module recompilation...
# ** Warning: ../src/december_top_file.v(185): (vopt-2241) Connection width does not match width of port 'rd_addr_i'. The port definition is at: ../src/Address_Translation_Table.v(45).
# //  ModelSim SE-64 10.7d Feb 15 2019 Linux 4.18.0-553.30.1.el8_10.x86_64
# //
# //  Copyright 1991-2019 Mentor Graphics Corporation
# //  All Rights Reserved.
# //
# //  ModelSim SE-64 and its associated documentation contain trade
# //  secrets and commercial or financial information that are the property of
# //  Mentor Graphics Corporation and are privileged, confidential,
# //  and exempt from disclosure under the Freedom of Information Act,
# //  5 U.S.C. Section 552. Furthermore, this information
# //  is prohibited from disclosure under the Trade Secrets Act,
# //  18 U.S.C. Section 1905.
# //
# Loading work.december_top_file_tb(fast)
# run -all
# Hardcoded clauses:
# Clause 1: (x5 OR NOT x2 OR x7)
# Clause 2: (NOT x1 OR x3 OR NOT x6)
# Clause 3: (x4 OR NOT x7 OR x2)
# Time                 5000: control_signal_i = 00000000000000
# Time                 5000: State = IDLE
# Time                 5000: Clause Register - Current clause: xxxxxxxxx
# Time                 5000: ATT - Input address: xxx, Output address: xxx, Mask: xxxxxxxxxxxxxxxxxxxx
# Time                 5000: Clause Table - Reading clauses for address: xxx
# Time                 5000: Clause Table - Output clauses: xxxxxxxxxxxxxxxxxxxxxxxxxxxxxxxxxxxxxxxxxxxxxxxxxxxxxxxxxxxxxxxxxxxxxxxxxxxxxxxxxxxxxxxxxxxxxxxxxxxxxxxxxxxxxxxxxxxxxxxx
# Time                 5000: VTC - Reading values: xxxxxxxxxxxxxxxxxxxxxxxxxxxxxxxxxxxxxxxx
# Time                 5000: TBW - Writing literals: xxxxxxxxxxxxxxxxxxxxxxxxxxxxxxxxxxxxxxxxxxxxxxxxxxxxxxxxxxxxxxxxxxxxxxxxxxxxxxxxxxxxxxxxxxxxxxxxxxxxxxxxxxxxxxxxxxxxxxxx, Index: 00
# Time                 5000: TBW - Reading literals: xxxxxxxxxxxxxxxxxxxxxxxxxxxxxxxxxxxxxxxxxxxxxxxxxxxxxxxxxxxxxxxxxxxxxxxxxxxxxxxxxxxxxxxxxxxxxxxxxxxxxxxxxxxxxxxxxxxxxxxx, Index: xx
# Time                 5000: CEC - Input values: xxxxxxxxxxxxxxxxxxxxxxxxxxxxxxxxxxxxxxxx, Negations: xxxxxxxxxxxxxxxxxxxxxxxxxxxxxxxxxxxxxxxx
# Time                 5000: CEC - Break bits: xxxxxxxxxxxxxxxxxxxx
# Time                 5000: VFS - Break bits: xxxxxxxxxxxxxxxxxxxx, Mask: xxxxxxxxxxxxxxxxxxxx, Random: xxxxxxxx
# Time                 5000: VFS - Selected: xx, Valid bits: xxxxxxxxxxxxxxxxxxxx
# Time                 5000: FIFO - Empty: x
# Time                 5000: UCS - Selected clause: xxxxxxxxx
# Time                 5000: Controller - State:  0, Control signals: 00000000000000
# Time                15000: control_signal_i = 00000000000000
# Time                15000: State = IDLE
# Time                15000: Clause Register - Current clause: 000000000
# Time                15000: ATT - Input address: 800, Output address: xxx, Mask: xxxxxxxxxxxxxxxxxxxx
# Time                15000: Clause Table - Reading clauses for address: xxx
# Time                15000: Clause Table - Output clauses: xxxxxxxxxxxxxxxxxxxxxxxxxxxxxxxxxxxxxxxxxxxxxxxxxxxxxxxxxxxxxxxxxxxxxxxxxxxxxxxxxxxxxxxxxxxxxxxxxxxxxxxxxxxxxxxxxxxxxxxx
# Time                15000: VTC - Reading values: xxxxxxxxxxxxxxxxxxxxxxxxxxxxxxxxxxxxxxxx
# Time                15000: TBW - Writing literals: xxxxxxxxxxxxxxxxxxxxxxxxxxxxxxxxxxxxxxxxxxxxxxxxxxxxxxxxxxxxxxxxxxxxxxxxxxxxxxxxxxxxxxxxxxxxxxxxxxxxxxxxxxxxxxxxxxxxxxxx, Index: 00
# Time                15000: TBW - Reading literals: xxxxxxxxxxxxxxxxxxxxxxxxxxxxxxxxxxxxxxxxxxxxxxxxxxxxxxxxxxxxxxxxxxxxxxxxxxxxxxxxxxxxxxxxxxxxxxxxxxxxxxxxxxxxxxxxxxxxxxxx, Index: 11
# Time                15000: CEC - Input values: xxxxxxxxxxxxxxxxxxxxxxxxxxxxxxxxxxxxxxxx, Negations: 0000000000000000000000000000000000000000
# Time                15000: CEC - Break bits: 00000000000000000000
# Time                15000: VFS - Break bits: 00000000000000000000, Mask: 00000000000000000000, Random: 00000001
# Time                15000: VFS - Selected: 11, Valid bits: 00000000000000000000
# Time                15000: FIFO - Empty: 1
# Time                15000: UCS - Selected clause: xxxxxxxxx
# Time                15000: Controller - State:  0, Control signals: 00000000000000
# Time                25000: control_signal_i = 00000000000000
# Time                25000: State = IDLE
# Time                25000: Clause Register - Current clause: 000000000
# Time                25000: ATT - Input address: 800, Output address: xxx, Mask: xxxxxxxxxxxxxxxxxxxx
# Time                25000: Clause Table - Reading clauses for address: xxx
# Time                25000: Clause Table - Output clauses: xxxxxxxxxxxxxxxxxxxxxxxxxxxxxxxxxxxxxxxxxxxxxxxxxxxxxxxxxxxxxxxxxxxxxxxxxxxxxxxxxxxxxxxxxxxxxxxxxxxxxxxxxxxxxxxxxxxxxxxx
# Time                25000: VTC - Reading values: xxxxxxxxxxxxxxxxxxxxxxxxxxxxxxxxxxxxxxxx
# Time                25000: TBW - Writing literals: xxxxxxxxxxxxxxxxxxxxxxxxxxxxxxxxxxxxxxxxxxxxxxxxxxxxxxxxxxxxxxxxxxxxxxxxxxxxxxxxxxxxxxxxxxxxxxxxxxxxxxxxxxxxxxxxxxxxxxxx, Index: 00
# Time                25000: TBW - Reading literals: xxxxxxxxxxxxxxxxxxxxxxxxxxxxxxxxxxxxxxxxxxxxxxxxxxxxxxxxxxxxxxxxxxxxxxxxxxxxxxxxxxxxxxxxxxxxxxxxxxxxxxxxxxxxxxxxxxxxxxxx, Index: 11
# Time                25000: CEC - Input values: xxxxxxxxxxxxxxxxxxxxxxxxxxxxxxxxxxxxxxxx, Negations: 0000000000000000000000000000000000000000
# Time                25000: CEC - Break bits: 00000000000000000000
# Time                25000: VFS - Break bits: 00000000000000000000, Mask: 00000000000000000000, Random: 00000001
# Time                25000: VFS - Selected: 11, Valid bits: 00000000000000000000
# Time                25000: FIFO - Empty: 1
# Time                25000: UCS - Selected clause: xxxxxxxxx
# Time                25000: Controller - State:  0, Control signals: 00000000000000
# Reset complete
# Time                35000: control_signal_i = 00000000000000
# Time                35000: State = IDLE
# Time                35000: Clause Register - Current clause: 000000000
# Time                35000: ATT - Input address: 800, Output address: xxx, Mask: xxxxxxxxxxxxxxxxxxxx
# Time                35000: Clause Table - Reading clauses for address: xxx
# Time                35000: Clause Table - Output clauses: xxxxxxxxxxxxxxxxxxxxxxxxxxxxxxxxxxxxxxxxxxxxxxxxxxxxxxxxxxxxxxxxxxxxxxxxxxxxxxxxxxxxxxxxxxxxxxxxxxxxxxxxxxxxxxxxxxxxxxxx
# Time                35000: VTC - Writing data: 0 to addresses: 00000000000000000000000000000000000000000000000000000000000000000000000000000000000000000000000000000000000000
# Time                35000: VTC - Reading values: xxxxxxxxxxxxxxxxxxxxxxxxxxxxxxxxxxxxxxxx
# Time                35000: TBW - Writing literals: xxxxxxxxxxxxxxxxxxxxxxxxxxxxxxxxxxxxxxxxxxxxxxxxxxxxxxxxxxxxxxxxxxxxxxxxxxxxxxxxxxxxxxxxxxxxxxxxxxxxxxxxxxxxxxxxxxxxxxxx, Index: 00
# Time                35000: TBW - Reading literals: xxxxxxxxxxxxxxxxxxxxxxxxxxxxxxxxxxxxxxxxxxxxxxxxxxxxxxxxxxxxxxxxxxxxxxxxxxxxxxxxxxxxxxxxxxxxxxxxxxxxxxxxxxxxxxxxxxxxxxxx, Index: 11
# Time                35000: CEC - Input values: xxxxxxxxxxxxxxxxxxxxxxxxxxxxxxxxxxxxxxxx, Negations: zzxxxxxxxxxxxxxxxxxxxxxxxxxxxxxxxxxxxxxx
# Time                35000: CEC - Break bits: xxxxxxxxxxxxxxxxxxxx
# Time                35000: VFS - Break bits: xxxxxxxxxxxxxxxxxxxx, Mask: 00000000000000000000, Random: 00000001
# Time                35000: VFS - Selected: 11, Valid bits: 00000000000000000000
# Time                35000: FIFO - Empty: 1
# Time                35000: UCS - Selected clause: xxxxxxxxx
# Time                35000: Controller - State:  0, Control signals: 00000000000000
# Time                45000: control_signal_i = 00000000000000
# Time                45000: State = IDLE
# Time                45000: Clause Register - Current clause: 000000000
# Time                45000: ATT - Input address: 800, Output address: xxx, Mask: xxxxxxxxxxxxxxxxxxxx
# Time                45000: Clause Table - Reading clauses for address: xxx
# Time                45000: Clause Table - Output clauses: xxxxxxxxxxxxxxxxxxxxxxxxxxxxxxxxxxxxxxxxxxxxxxxxxxxxxxxxxxxxxxxxxxxxxxxxxxxxxxxxxxxxxxxxxxxxxxxxxxxxxxxxxxxxxxxxxxxxxxxx
# Time                45000: VTC - Writing data: 0 to addresses: 00000000000000000000000000000000000000000000000000000000000000000000000000000000000000000000000000000000000001
# Time                45000: VTC - Reading values: xxxxxxxxxxxxxxxxxxxxxxxxxxxxxxxxxxxxxxxx
# Time                45000: TBW - Writing literals: xxxxxxxxxxxxxxxxxxxxxxxxxxxxxxxxxxxxxxxxxxxxxxxxxxxxxxxxxxxxxxxxxxxxxxxxxxxxxxxxxxxxxxxxxxxxxxxxxxxxxxxxxxxxxxxxxxxxxxxx, Index: 00
# Time                45000: TBW - Reading literals: xxxxxxxxxxxxxxxxxxxxxxxxxxxxxxxxxxxxxxxxxxxxxxxxxxxxxxxxxxxxxxxxxxxxxxxxxxxxxxxxxxxxxxxxxxxxxxxxxxxxxxxxxxxxxxxxxxxxxxxx, Index: 11
# Time                45000: CEC - Input values: xxxxxxxxxxxxxxxxxxxxxxxxxxxxxxxxxxxxxxxx, Negations: zzxxxxxxxxxxxxxxxxxxxxxxxxxxxxxxxxxxxxxx
# Time                45000: CEC - Break bits: xxxxxxxxxxxxxxxxxxxx
# Time                45000: VFS - Break bits: xxxxxxxxxxxxxxxxxxxx, Mask: 00000000000000000000, Random: 00000003
# Time                45000: VFS - Selected: 11, Valid bits: 00000000000000000000
# Time                45000: FIFO - Empty: 1
# Time                45000: UCS - Selected clause: xxxxxxxxx
# Time                45000: Controller - State:  0, Control signals: 00000000000000
# Time                55000: control_signal_i = 00000000000000
# Time                55000: State = IDLE
# Time                55000: Clause Register - Current clause: 000000000
# Time                55000: ATT - Input address: 800, Output address: xxx, Mask: xxxxxxxxxxxxxxxxxxxx
# Time                55000: Clause Table - Reading clauses for address: xxx
# Time                55000: Clause Table - Output clauses: xxxxxxxxxxxxxxxxxxxxxxxxxxxxxxxxxxxxxxxxxxxxxxxxxxxxxxxxxxxxxxxxxxxxxxxxxxxxxxxxxxxxxxxxxxxxxxxxxxxxxxxxxxxxxxxxxxxxxxxx
# Time                55000: VTC - Writing data: 0 to addresses: 00000000000000000000000000000000000000000000000000000000000000000000000000000000000000000000000000000000000002
# Time                55000: VTC - Reading values: 000000000000000000000000000000000000000x
# Time                55000: TBW - Writing literals: xxxxxxxxxxxxxxxxxxxxxxxxxxxxxxxxxxxxxxxxxxxxxxxxxxxxxxxxxxxxxxxxxxxxxxxxxxxxxxxxxxxxxxxxxxxxxxxxxxxxxxxxxxxxxxxxxxxxxxxx, Index: 00
# Time                55000: TBW - Reading literals: xxxxxxxxxxxxxxxxxxxxxxxxxxxxxxxxxxxxxxxxxxxxxxxxxxxxxxxxxxxxxxxxxxxxxxxxxxxxxxxxxxxxxxxxxxxxxxxxxxxxxxxxxxxxxxxxxxxxxxxx, Index: 11
# Time                55000: CEC - Input values: 000000000000000000000000000000000000000x, Negations: zzxxxxxxxxxxxxxxxxxxxxxxxxxxxxxxxxxxxxxx
# Time                55000: CEC - Break bits: xxxxxxxxxxxxxxxxxxxx
# Time                55000: VFS - Break bits: xxxxxxxxxxxxxxxxxxxx, Mask: xxxxxxxxxxxxxxxxxxxx, Random: 00000006
# Time                55000: VFS - Selected: 11, Valid bits: 00000000000000000000
# Time                55000: FIFO - Empty: 1
# Time                55000: UCS - Selected clause: xxxxxxxxx
# Time                55000: Controller - State:  0, Control signals: 00000000000000
# Time                65000: control_signal_i = 00000000000000
# Time                65000: State = IDLE
# Time                65000: Clause Register - Current clause: 000000000
# Time                65000: ATT - Input address: 800, Output address: xxx, Mask: xxxxxxxxxxxxxxxxxxxx
# Time                65000: Clause Table - Reading clauses for address: xxx
# Time                65000: Clause Table - Output clauses: xxxxxxxxxxxxxxxxxxxxxxxxxxxxxxxxxxxxxxxxxxxxxxxxxxxxxxxxxxxxxxxxxxxxxxxxxxxxxxxxxxxxxxxxxxxxxxxxxxxxxxxxxxxxxxxxxxxxxxxx
# Time                65000: VTC - Writing data: 0 to addresses: 00000000000000000000000000000000000000000000000000000000000000000000000000000000000000000000000000000000000003
# Time                65000: VTC - Reading values: 000000000000000000000000000000000000000x
# Time                65000: TBW - Writing literals: xxxxxxxxxxxxxxxxxxxxxxxxxxxxxxxxxxxxxxxxxxxxxxxxxxxxxxxxxxxxxxxxxxxxxxxxxxxxxxxxxxxxxxxxxxxxxxxxxxxxxxxxxxxxxxxxxxxxxxxx, Index: 00
# Time                65000: TBW - Reading literals: xxxxxxxxxxxxxxxxxxxxxxxxxxxxxxxxxxxxxxxxxxxxxxxxxxxxxxxxxxxxxxxxxxxxxxxxxxxxxxxxxxxxxxxxxxxxxxxxxxxxxxxxxxxxxxxxxxxxxxxx, Index: 11
# Time                65000: CEC - Input values: 000000000000000000000000000000000000000x, Negations: zzxxxxxxxxxxxxxxxxxxxxxxxxxxxxxxxxxxxxxx
# Time                65000: CEC - Break bits: xxxxxxxxxxxxxxxxxxxx
# Time                65000: VFS - Break bits: xxxxxxxxxxxxxxxxxxxx, Mask: xxxxxxxxxxxxxxxxxxxx, Random: 0000000d
# Time                65000: VFS - Selected: 11, Valid bits: 00000000000000000000
# Time                65000: FIFO - Empty: 1
# Time                65000: UCS - Selected clause: xxxxxxxxx
# Time                65000: Controller - State:  0, Control signals: 00000000000000
# Time                75000: control_signal_i = 00000000000000
# Time                75000: State = IDLE
# Time                75000: Clause Register - Current clause: 000000000
# Time                75000: ATT - Input address: 800, Output address: xxx, Mask: xxxxxxxxxxxxxxxxxxxx
# Time                75000: Clause Table - Reading clauses for address: xxx
# Time                75000: Clause Table - Output clauses: xxxxxxxxxxxxxxxxxxxxxxxxxxxxxxxxxxxxxxxxxxxxxxxxxxxxxxxxxxxxxxxxxxxxxxxxxxxxxxxxxxxxxxxxxxxxxxxxxxxxxxxxxxxxxxxxxxxxxxxx
# Time                75000: VTC - Writing data: 0 to addresses: 00000000000000000000000000000000000000000000000000000000000000000000000000000000000000000000000000000000000004
# Time                75000: VTC - Reading values: 000000000000000000000000000000000000000x
# Time                75000: TBW - Writing literals: xxxxxxxxxxxxxxxxxxxxxxxxxxxxxxxxxxxxxxxxxxxxxxxxxxxxxxxxxxxxxxxxxxxxxxxxxxxxxxxxxxxxxxxxxxxxxxxxxxxxxxxxxxxxxxxxxxxxxxxx, Index: 00
# Time                75000: TBW - Reading literals: xxxxxxxxxxxxxxxxxxxxxxxxxxxxxxxxxxxxxxxxxxxxxxxxxxxxxxxxxxxxxxxxxxxxxxxxxxxxxxxxxxxxxxxxxxxxxxxxxxxxxxxxxxxxxxxxxxxxxxxx, Index: 11
# Time                75000: CEC - Input values: 000000000000000000000000000000000000000x, Negations: zzxxxxxxxxxxxxxxxxxxxxxxxxxxxxxxxxxxxxxx
# Time                75000: CEC - Break bits: xxxxxxxxxxxxxxxxxxxx
# Time                75000: VFS - Break bits: xxxxxxxxxxxxxxxxxxxx, Mask: xxxxxxxxxxxxxxxxxxxx, Random: 0000001b
# Time                75000: VFS - Selected: 11, Valid bits: 00000000000000000000
# Time                75000: FIFO - Empty: 1
# Time                75000: UCS - Selected clause: xxxxxxxxx
# Time                75000: Controller - State:  0, Control signals: 00000000000000
# Time                85000: control_signal_i = 00000000000000
# Time                85000: State = IDLE
# Time                85000: Clause Register - Current clause: 000000000
# Time                85000: ATT - Input address: 800, Output address: xxx, Mask: xxxxxxxxxxxxxxxxxxxx
# Time                85000: Clause Table - Reading clauses for address: xxx
# Time                85000: Clause Table - Output clauses: xxxxxxxxxxxxxxxxxxxxxxxxxxxxxxxxxxxxxxxxxxxxxxxxxxxxxxxxxxxxxxxxxxxxxxxxxxxxxxxxxxxxxxxxxxxxxxxxxxxxxxxxxxxxxxxxxxxxxxxx
# Time                85000: VTC - Writing data: 0 to addresses: 00000000000000000000000000000000000000000000000000000000000000000000000000000000000000000000000000000000000005
# Time                85000: VTC - Reading values: 000000000000000000000000000000000000000x
# Time                85000: TBW - Writing literals: xxxxxxxxxxxxxxxxxxxxxxxxxxxxxxxxxxxxxxxxxxxxxxxxxxxxxxxxxxxxxxxxxxxxxxxxxxxxxxxxxxxxxxxxxxxxxxxxxxxxxxxxxxxxxxxxxxxxxxxx, Index: 00
# Time                85000: TBW - Reading literals: xxxxxxxxxxxxxxxxxxxxxxxxxxxxxxxxxxxxxxxxxxxxxxxxxxxxxxxxxxxxxxxxxxxxxxxxxxxxxxxxxxxxxxxxxxxxxxxxxxxxxxxxxxxxxxxxxxxxxxxx, Index: 11
# Time                85000: CEC - Input values: 000000000000000000000000000000000000000x, Negations: zzxxxxxxxxxxxxxxxxxxxxxxxxxxxxxxxxxxxxxx
# Time                85000: CEC - Break bits: xxxxxxxxxxxxxxxxxxxx
# Time                85000: VFS - Break bits: xxxxxxxxxxxxxxxxxxxx, Mask: xxxxxxxxxxxxxxxxxxxx, Random: 00000036
# Time                85000: VFS - Selected: 11, Valid bits: 00000000000000000000
# Time                85000: FIFO - Empty: 1
# Time                85000: UCS - Selected clause: xxxxxxxxx
# Time                85000: Controller - State:  0, Control signals: 00000000000000
# Time                95000: control_signal_i = 00000000000000
# Time                95000: State = IDLE
# Time                95000: Clause Register - Current clause: 000000000
# Time                95000: ATT - Input address: 800, Output address: xxx, Mask: xxxxxxxxxxxxxxxxxxxx
# Time                95000: Clause Table - Reading clauses for address: xxx
# Time                95000: Clause Table - Output clauses: xxxxxxxxxxxxxxxxxxxxxxxxxxxxxxxxxxxxxxxxxxxxxxxxxxxxxxxxxxxxxxxxxxxxxxxxxxxxxxxxxxxxxxxxxxxxxxxxxxxxxxxxxxxxxxxxxxxxxxxx
# Time                95000: VTC - Writing data: 0 to addresses: 00000000000000000000000000000000000000000000000000000000000000000000000000000000000000000000000000000000000006
# Time                95000: VTC - Reading values: 000000000000000000000000000000000000000x
# Time                95000: TBW - Writing literals: xxxxxxxxxxxxxxxxxxxxxxxxxxxxxxxxxxxxxxxxxxxxxxxxxxxxxxxxxxxxxxxxxxxxxxxxxxxxxxxxxxxxxxxxxxxxxxxxxxxxxxxxxxxxxxxxxxxxxxxx, Index: 00
# Time                95000: TBW - Reading literals: xxxxxxxxxxxxxxxxxxxxxxxxxxxxxxxxxxxxxxxxxxxxxxxxxxxxxxxxxxxxxxxxxxxxxxxxxxxxxxxxxxxxxxxxxxxxxxxxxxxxxxxxxxxxxxxxxxxxxxxx, Index: 11
# Time                95000: CEC - Input values: 000000000000000000000000000000000000000x, Negations: zzxxxxxxxxxxxxxxxxxxxxxxxxxxxxxxxxxxxxxx
# Time                95000: CEC - Break bits: xxxxxxxxxxxxxxxxxxxx
# Time                95000: VFS - Break bits: xxxxxxxxxxxxxxxxxxxx, Mask: xxxxxxxxxxxxxxxxxxxx, Random: 0000006d
# Time                95000: VFS - Selected: 11, Valid bits: 00000000000000000000
# Time                95000: FIFO - Empty: 1
# Time                95000: UCS - Selected clause: xxxxxxxxx
# Time                95000: Controller - State:  0, Control signals: 00000000000000
# Time               105000: control_signal_i = 00000000000000
# Time               105000: State = IDLE
# Time               105000: Clause Register - Current clause: 000000000
# Time               105000: ATT - Input address: 800, Output address: xxx, Mask: xxxxxxxxxxxxxxxxxxxx
# Time               105000: Clause Table - Reading clauses for address: xxx
# Time               105000: Clause Table - Output clauses: xxxxxxxxxxxxxxxxxxxxxxxxxxxxxxxxxxxxxxxxxxxxxxxxxxxxxxxxxxxxxxxxxxxxxxxxxxxxxxxxxxxxxxxxxxxxxxxxxxxxxxxxxxxxxxxxxxxxxxxx
# Time               105000: VTC - Writing data: 0 to addresses: 00000000000000000000000000000000000000000000000000000000000000000000000000000000000000000000000000000000000007
# Time               105000: VTC - Reading values: 000000000000000000000000000000000000000x
# Time               105000: TBW - Writing literals: xxxxxxxxxxxxxxxxxxxxxxxxxxxxxxxxxxxxxxxxxxxxxxxxxxxxxxxxxxxxxxxxxxxxxxxxxxxxxxxxxxxxxxxxxxxxxxxxxxxxxxxxxxxxxxxxxxxxxxxx, Index: 00
# Time               105000: TBW - Reading literals: xxxxxxxxxxxxxxxxxxxxxxxxxxxxxxxxxxxxxxxxxxxxxxxxxxxxxxxxxxxxxxxxxxxxxxxxxxxxxxxxxxxxxxxxxxxxxxxxxxxxxxxxxxxxxxxxxxxxxxxx, Index: 11
# Time               105000: CEC - Input values: 000000000000000000000000000000000000000x, Negations: zzxxxxxxxxxxxxxxxxxxxxxxxxxxxxxxxxxxxxxx
# Time               105000: CEC - Break bits: xxxxxxxxxxxxxxxxxxxx
# Time               105000: VFS - Break bits: xxxxxxxxxxxxxxxxxxxx, Mask: xxxxxxxxxxxxxxxxxxxx, Random: 000000db
# Time               105000: VFS - Selected: 11, Valid bits: 00000000000000000000
# Time               105000: FIFO - Empty: 1
# Time               105000: UCS - Selected clause: xxxxxxxxx
# Time               105000: Controller - State:  0, Control signals: 00000000000000
# Time               115000: control_signal_i = 00000000000000
# Time               115000: State = IDLE
# Time               115000: Clause Register - Current clause: 000000000
# Time               115000: ATT - Input address: 800, Output address: xxx, Mask: xxxxxxxxxxxxxxxxxxxx
# Time               115000: Clause Table - Reading clauses for address: xxx
# Time               115000: Clause Table - Output clauses: xxxxxxxxxxxxxxxxxxxxxxxxxxxxxxxxxxxxxxxxxxxxxxxxxxxxxxxxxxxxxxxxxxxxxxxxxxxxxxxxxxxxxxxxxxxxxxxxxxxxxxxxxxxxxxxxxxxxxxxx
# Time               115000: VTC - Writing data: 0 to addresses: 00000000000000000000000000000000000000000000000000000000000000000000000000000000000000000000000000000000000008
# Time               115000: VTC - Reading values: 000000000000000000000000000000000000000x
# Time               115000: TBW - Writing literals: xxxxxxxxxxxxxxxxxxxxxxxxxxxxxxxxxxxxxxxxxxxxxxxxxxxxxxxxxxxxxxxxxxxxxxxxxxxxxxxxxxxxxxxxxxxxxxxxxxxxxxxxxxxxxxxxxxxxxxxx, Index: 00
# Time               115000: TBW - Reading literals: xxxxxxxxxxxxxxxxxxxxxxxxxxxxxxxxxxxxxxxxxxxxxxxxxxxxxxxxxxxxxxxxxxxxxxxxxxxxxxxxxxxxxxxxxxxxxxxxxxxxxxxxxxxxxxxxxxxxxxxx, Index: 11
# Time               115000: CEC - Input values: 000000000000000000000000000000000000000x, Negations: zzxxxxxxxxxxxxxxxxxxxxxxxxxxxxxxxxxxxxxx
# Time               115000: CEC - Break bits: xxxxxxxxxxxxxxxxxxxx
# Time               115000: VFS - Break bits: xxxxxxxxxxxxxxxxxxxx, Mask: xxxxxxxxxxxxxxxxxxxx, Random: 000001b6
# Time               115000: VFS - Selected: 11, Valid bits: 00000000000000000000
# Time               115000: FIFO - Empty: 1
# Time               115000: UCS - Selected clause: xxxxxxxxx
# Time               115000: Controller - State:  0, Control signals: 00000000000000
# Time               125000: control_signal_i = 00000000000000
# Time               125000: State = IDLE
# Time               125000: Clause Register - Current clause: 000000000
# Time               125000: ATT - Input address: 800, Output address: xxx, Mask: xxxxxxxxxxxxxxxxxxxx
# Time               125000: Clause Table - Reading clauses for address: xxx
# Time               125000: Clause Table - Output clauses: xxxxxxxxxxxxxxxxxxxxxxxxxxxxxxxxxxxxxxxxxxxxxxxxxxxxxxxxxxxxxxxxxxxxxxxxxxxxxxxxxxxxxxxxxxxxxxxxxxxxxxxxxxxxxxxxxxxxxxxx
# Time               125000: VTC - Writing data: 0 to addresses: 00000000000000000000000000000000000000000000000000000000000000000000000000000000000000000000000000000000000009
# Time               125000: VTC - Reading values: 000000000000000000000000000000000000000x
# Time               125000: TBW - Writing literals: xxxxxxxxxxxxxxxxxxxxxxxxxxxxxxxxxxxxxxxxxxxxxxxxxxxxxxxxxxxxxxxxxxxxxxxxxxxxxxxxxxxxxxxxxxxxxxxxxxxxxxxxxxxxxxxxxxxxxxxx, Index: 00
# Time               125000: TBW - Reading literals: xxxxxxxxxxxxxxxxxxxxxxxxxxxxxxxxxxxxxxxxxxxxxxxxxxxxxxxxxxxxxxxxxxxxxxxxxxxxxxxxxxxxxxxxxxxxxxxxxxxxxxxxxxxxxxxxxxxxxxxx, Index: 11
# Time               125000: CEC - Input values: 000000000000000000000000000000000000000x, Negations: zzxxxxxxxxxxxxxxxxxxxxxxxxxxxxxxxxxxxxxx
# Time               125000: CEC - Break bits: xxxxxxxxxxxxxxxxxxxx
# Time               125000: VFS - Break bits: xxxxxxxxxxxxxxxxxxxx, Mask: xxxxxxxxxxxxxxxxxxxx, Random: 0000036d
# Time               125000: VFS - Selected: 11, Valid bits: 00000000000000000000
# Time               125000: FIFO - Empty: 1
# Time               125000: UCS - Selected clause: xxxxxxxxx
# Time               125000: Controller - State:  0, Control signals: 00000000000000
# Time               135000: control_signal_i = 00000000000000
# Time               135000: State = IDLE
# Time               135000: Clause Register - Current clause: 000000000
# Time               135000: ATT - Input address: 800, Output address: xxx, Mask: xxxxxxxxxxxxxxxxxxxx
# Time               135000: Clause Table - Reading clauses for address: xxx
# Time               135000: Clause Table - Output clauses: xxxxxxxxxxxxxxxxxxxxxxxxxxxxxxxxxxxxxxxxxxxxxxxxxxxxxxxxxxxxxxxxxxxxxxxxxxxxxxxxxxxxxxxxxxxxxxxxxxxxxxxxxxxxxxxxxxxxxxxx
# Time               135000: VTC - Writing data: 0 to addresses: 0000000000000000000000000000000000000000000000000000000000000000000000000000000000000000000000000000000000000a
# Time               135000: VTC - Reading values: 000000000000000000000000000000000000000x
# Time               135000: TBW - Writing literals: xxxxxxxxxxxxxxxxxxxxxxxxxxxxxxxxxxxxxxxxxxxxxxxxxxxxxxxxxxxxxxxxxxxxxxxxxxxxxxxxxxxxxxxxxxxxxxxxxxxxxxxxxxxxxxxxxxxxxxxx, Index: 00
# Time               135000: TBW - Reading literals: xxxxxxxxxxxxxxxxxxxxxxxxxxxxxxxxxxxxxxxxxxxxxxxxxxxxxxxxxxxxxxxxxxxxxxxxxxxxxxxxxxxxxxxxxxxxxxxxxxxxxxxxxxxxxxxxxxxxxxxx, Index: 11
# Time               135000: CEC - Input values: 000000000000000000000000000000000000000x, Negations: zzxxxxxxxxxxxxxxxxxxxxxxxxxxxxxxxxxxxxxx
# Time               135000: CEC - Break bits: xxxxxxxxxxxxxxxxxxxx
# Time               135000: VFS - Break bits: xxxxxxxxxxxxxxxxxxxx, Mask: xxxxxxxxxxxxxxxxxxxx, Random: 000006db
# Time               135000: VFS - Selected: 11, Valid bits: 00000000000000000000
# Time               135000: FIFO - Empty: 1
# Time               135000: UCS - Selected clause: xxxxxxxxx
# Time               135000: Controller - State:  0, Control signals: 00000000000000
# Time               145000: control_signal_i = 00000000000000
# Time               145000: State = IDLE
# Time               145000: Clause Register - Current clause: 000000000
# Time               145000: ATT - Input address: 800, Output address: xxx, Mask: xxxxxxxxxxxxxxxxxxxx
# Time               145000: Clause Table - Reading clauses for address: xxx
# Time               145000: Clause Table - Output clauses: xxxxxxxxxxxxxxxxxxxxxxxxxxxxxxxxxxxxxxxxxxxxxxxxxxxxxxxxxxxxxxxxxxxxxxxxxxxxxxxxxxxxxxxxxxxxxxxxxxxxxxxxxxxxxxxxxxxxxxxx
# Time               145000: VTC - Writing data: 0 to addresses: 0000000000000000000000000000000000000000000000000000000000000000000000000000000000000000000000000000000000000b
# Time               145000: VTC - Reading values: 000000000000000000000000000000000000000x
# Time               145000: TBW - Writing literals: xxxxxxxxxxxxxxxxxxxxxxxxxxxxxxxxxxxxxxxxxxxxxxxxxxxxxxxxxxxxxxxxxxxxxxxxxxxxxxxxxxxxxxxxxxxxxxxxxxxxxxxxxxxxxxxxxxxxxxxx, Index: 00
# Time               145000: TBW - Reading literals: xxxxxxxxxxxxxxxxxxxxxxxxxxxxxxxxxxxxxxxxxxxxxxxxxxxxxxxxxxxxxxxxxxxxxxxxxxxxxxxxxxxxxxxxxxxxxxxxxxxxxxxxxxxxxxxxxxxxxxxx, Index: 11
# Time               145000: CEC - Input values: 000000000000000000000000000000000000000x, Negations: zzxxxxxxxxxxxxxxxxxxxxxxxxxxxxxxxxxxxxxx
# Time               145000: CEC - Break bits: xxxxxxxxxxxxxxxxxxxx
# Time               145000: VFS - Break bits: xxxxxxxxxxxxxxxxxxxx, Mask: xxxxxxxxxxxxxxxxxxxx, Random: 00000db6
# Time               145000: VFS - Selected: 11, Valid bits: 00000000000000000000
# Time               145000: FIFO - Empty: 1
# Time               145000: UCS - Selected clause: xxxxxxxxx
# Time               145000: Controller - State:  0, Control signals: 00000000000000
# Time               155000: control_signal_i = 00000000000000
# Time               155000: State = IDLE
# Time               155000: Clause Register - Current clause: 000000000
# Time               155000: ATT - Input address: 800, Output address: xxx, Mask: xxxxxxxxxxxxxxxxxxxx
# Time               155000: Clause Table - Reading clauses for address: xxx
# Time               155000: Clause Table - Output clauses: xxxxxxxxxxxxxxxxxxxxxxxxxxxxxxxxxxxxxxxxxxxxxxxxxxxxxxxxxxxxxxxxxxxxxxxxxxxxxxxxxxxxxxxxxxxxxxxxxxxxxxxxxxxxxxxxxxxxxxxx
# Time               155000: VTC - Writing data: 0 to addresses: 0000000000000000000000000000000000000000000000000000000000000000000000000000000000000000000000000000000000000c
# Time               155000: VTC - Reading values: 000000000000000000000000000000000000000x
# Time               155000: TBW - Writing literals: xxxxxxxxxxxxxxxxxxxxxxxxxxxxxxxxxxxxxxxxxxxxxxxxxxxxxxxxxxxxxxxxxxxxxxxxxxxxxxxxxxxxxxxxxxxxxxxxxxxxxxxxxxxxxxxxxxxxxxxx, Index: 00
# Time               155000: TBW - Reading literals: xxxxxxxxxxxxxxxxxxxxxxxxxxxxxxxxxxxxxxxxxxxxxxxxxxxxxxxxxxxxxxxxxxxxxxxxxxxxxxxxxxxxxxxxxxxxxxxxxxxxxxxxxxxxxxxxxxxxxxxx, Index: 11
# Time               155000: CEC - Input values: 000000000000000000000000000000000000000x, Negations: zzxxxxxxxxxxxxxxxxxxxxxxxxxxxxxxxxxxxxxx
# Time               155000: CEC - Break bits: xxxxxxxxxxxxxxxxxxxx
# Time               155000: VFS - Break bits: xxxxxxxxxxxxxxxxxxxx, Mask: xxxxxxxxxxxxxxxxxxxx, Random: 00001b6d
# Time               155000: VFS - Selected: 11, Valid bits: 00000000000000000000
# Time               155000: FIFO - Empty: 1
# Time               155000: UCS - Selected clause: xxxxxxxxx
# Time               155000: Controller - State:  0, Control signals: 00000000000000
# Time               165000: control_signal_i = 00000000000000
# Time               165000: State = IDLE
# Time               165000: Clause Register - Current clause: 000000000
# Time               165000: ATT - Input address: 800, Output address: xxx, Mask: xxxxxxxxxxxxxxxxxxxx
# Time               165000: Clause Table - Reading clauses for address: xxx
# Time               165000: Clause Table - Output clauses: xxxxxxxxxxxxxxxxxxxxxxxxxxxxxxxxxxxxxxxxxxxxxxxxxxxxxxxxxxxxxxxxxxxxxxxxxxxxxxxxxxxxxxxxxxxxxxxxxxxxxxxxxxxxxxxxxxxxxxxx
# Time               165000: VTC - Writing data: 0 to addresses: 0000000000000000000000000000000000000000000000000000000000000000000000000000000000000000000000000000000000000d
# Time               165000: VTC - Reading values: 000000000000000000000000000000000000000x